56
Final Triton Step | Bias=0.0 Vol=-0.0002
C 0.635458 0.787546 0.595617
C 2.117503 1.140520 0.637245
C 1.813640 0.055602 -0.409941
C 0.920807 0.456506 -1.639764
C -0.608409 0.321129 -1.877589
C -0.233406 -0.084936 -0.458376
C 0.834721 0.769479 -1.253882
C 0.942697 -0.630495 -0.650234
C 0.088772 -0.593204 0.799980
C 1.256289 -0.895777 1.784982
C 0.982351 -1.561337 0.413849
C 0.416740 -0.338316 -0.488204
O 1.625645 -0.311963 0.462062
C 1.036604 -1.686486 0.496421
C 0.136334 -0.519400 0.959325
C -0.940424 0.572533 0.730387
C -1.428434 -0.890137 0.918397
O -0.915034 1.171041 -0.640079
C -0.283291 1.232137 -0.527735
C -1.009939 2.211149 0.386768
C -0.739017 0.755788 0.860395
C 0.146353 0.892261 2.100180
C 0.444587 2.258209 1.470052
C -0.800021 2.185922 0.592936
O 0.023545 1.958918 3.070684
C 0.030824 -1.769923 1.668598
C -0.727064 -0.458387 2.100564
C -1.043481 0.498586 0.889214
C -1.024285 -0.394060 -0.391995
C -0.668194 -1.831475 0.016396
C -1.290208 -2.417258 1.291781
O 0.765929 -1.967564 0.173078
O -2.226966 0.389814 0.034852
O 1.547519 -1.009537 -1.357795
H 0.511184 0.742240 1.892264
H 3.055254 1.053650 -0.225010
H 0.788508 0.389681 -2.710445
H -1.870904 0.460368 -1.695519
H 1.314131 1.569363 -0.711151
H 1.950059 -1.371411 -0.965662
H 1.702946 -0.465436 0.344818
H -0.051874 -1.280406 -1.265259
H 1.093163 -0.655027 1.816199
H -2.294558 -0.213732 1.569103
H -0.708576 1.398198 -1.863748
H -1.946448 2.356245 -0.472896
H 0.510636 0.886636 0.529443
H 0.771086 2.474784 0.477501
H -1.083988 1.946005 1.823554
H -1.099623 2.406823 3.391623
H 0.137298 -0.577356 3.031634
H -1.553128 -0.986913 -1.393683
H -0.343335 -1.981748 1.566447
H 1.225937 -2.727988 -0.708613
H -2.577112 -0.492587 -0.159208
H 1.142379 -1.078916 -2.237407
